    1C
    1UICEM - ABAQUS INTERFACES VERSION 4.3.1                            
